
# =========================================================================
# LAMMPS file for 'read_data' command
# =========================================================================

# =========================================================================
# Description:
# -------------------------------------------------------------------------
# 
# SELM_Lagrangian = SELM_Lagrangian_LAMMPS_ATOM_ANGLE_STYLE
# LagrangianName = Points
# LagrangianTypeStr = LAMMPS_ATOM_ANGLE_STYLE
# 
# SELM_Eulerian   = SELM_Eulerian_LAMMPS_SHEAR_UNIFORM1_FFTW3
#
# atom_type = angle_type
#
# =========================================================================

# =========================================================================
# Header information:
# -------------------------------------------------------------------------
25 atoms
0 bonds
0 angles

1 atom types
0 bond types
0 angle types
# =========================================================================

# =========================================================================
# Domain Size Specification:
# -------------------------------------------------------------------------
-18 18 xlo xhi
-18 18 ylo yhi
-18 18 zlo zhi
0.0 0.0 0.0 xy xz yz
# =========================================================================

# =========================================================================
# Mass Specification:
#
# Gives for each atom the following:
#    type-ID | mass
# -------------------------------------------------------------------------
# Atom Location Specification:
#
# Gives for atom angle_type the following:
#    atom-ID | molecule-ID | type-ID | x | y | z
# -------------------------------------------------------------------------
# Bond Specification:
#
# Gives for atom angle_type the following:
#    bond-ID | type-ID | atom1-ID | atom2-ID
# -------------------------------------------------------------------------
# Angle Specification:
#
# Gives for atom angle_type the following:
#    angle-ID | type-ID | atom1-ID | atom2-ID | atom3-ID
# -------------------------------------------------------------------------
# WARNING: atom-ID, type-ID, molecule-ID must be between 1 - N             
# -------------------------------------------------------------------------

Masses

1 1.1230000

Atoms

1 2 1 -5.1 -5.1 -5.1
2 2 1 -5.1 -5.1 0
3 2 1 -5.1 -5.1 5.1
4 2 1 0 -5.1 -5.1
5 2 1 0 -5.1 0
6 2 1 0 -5.1 5.1
7 2 1 5.1 -5.1 -5.1
8 2 1 5.1 -5.1 0
9 2 1 5.1 -5.1 5.1
10 2 1 -5.1 0 -5.1
11 2 1 -5.1 0 5.1
12 2 1 0 0 -5.1
13 2 1 0 0 0
14 2 1 0 0 5.1
15 2 1 5.1 0 -5.1
16 2 1 5.1 0 5.1
17 2 1 -5.1 5.1 -5.1
18 2 1 -5.1 5.1 0
19 2 1 -5.1 5.1 5.1
20 2 1 0 5.1 -5.1
21 2 1 0 5.1 0
22 2 1 0 5.1 5.1
23 2 1 5.1 5.1 -5.1
24 2 1 5.1 5.1 0
25 2 1 5.1 5.1 5.1

